solution implicit

5 atoms
8 bonds
0 angles
0 dihedrals
0 impropers

5 atom types
8 bond types
0 angle types
0 dihedral types

0.00 100.00 xlo xhi
0.00 100.00 ylo yhi

Masses

1 1
2 10
3 1
4 1
5 1

Atoms

1	0	1	0	5	8	0
2	0	2	0	8	4	0
3	0	3	0	8	1	0
4	0	4	0	2	1	0
5	0	5	0	2	4	0

Bonds

1	1	1	2
2	2	2	3
3	3	3	4
4	4	4	5
5	5	1	5
6	6	2	5
7	7	2	4
8	8	3	5